
  ___ ___ ___ _ _ _  
 |   |   |_  | | | | 
 | | | | | . | | | | 
 |__ |  _|___|_____|  1.4.0
 |___|_|             

User:   ???@96e355854a63
Date:   Wed Sep  5 15:53:04 2018
Arch:   x86_64
Pid:    24
Python: 3.7.0
gpaw:   /app/gpaw/software/venv/lib/python3.7/site-packages/gpaw
_gpaw:  /app/gpaw/software/venv/lib/python3.7/site-packages/
        _gpaw.cpython-37m-x86_64-linux-gnu.so
ase:    /app/gpaw/software/venv/lib/python3.7/site-packages/ase (version 3.16.2)
numpy:  /app/gpaw/software/venv/lib/python3.7/site-packages/numpy (version 1.15.1)
scipy:  /app/gpaw/software/venv/lib/python3.7/site-packages/scipy (version 1.1.0)
units:  Angstrom and eV
cores:  1

Input parameters:
  gpts: [40 40 40]
  maxiter: 150
  mixer: {backend: pulay,
          beta: None,
          method: separate,
          nmaxold: None,
          weight: None}
  xc: AM05

System changes: positions, numbers, cell, pbc, initial_charges, initial_magmoms 

Initialize ...

H-setup:
  name: Hydrogen
  id: 8ac929795fa69ba4d01a8107e054c71e
  Z: 1
  valence: 1
  core: 0
  charge: 0.0
  file: /app/gpaw/datasets/H.AM05
  cutoffs: 0.48(comp), 0.85(filt), 0.53(core), lmax=2
  valence states:
                energy  radius
    1s(1.00)    -6.332   0.476
    *s          20.879   0.476
    *p           0.000   0.476

  Using partial waves for H as LCAO basis

O-setup:
  name: Oxygen
  id: f7d8a0a9531eb98bf0820a3fcf84d8fd
  Z: 8
  valence: 6
  core: 2
  charge: 0.0
  file: /app/gpaw/datasets/O.AM05
  cutoffs: 0.67(comp), 1.17(filt), 0.83(core), lmax=2
  valence states:
                energy  radius
    2s(2.00)   -23.729   0.688
    2p(4.00)    -8.955   0.598
    *s           3.482   0.688
    *p          18.256   0.598
    *d           0.000   0.619

  Using partial waves for O as LCAO basis

Reference energy: -2054.630527

Spin-paired calculation

Occupation numbers:
  Fermi-Dirac: width=0.0000 eV

Convergence criteria:
  Maximum total energy change: 0.0005 eV / electron
  Maximum integral of absolute density change: 0.0001 electrons
  Maximum integral of absolute eigenstate change: 4e-08 eV^2
  Maximum number of iterations: 150

Symmetries present (total): 1

  ( 1  0  0)
  ( 0  1  0)
  ( 0  0  1)

1 k-point (Gamma)
1 k-point in the irreducible part of the Brillouin zone
       k-points in crystal coordinates                weights
   0:     0.00000000    0.00000000    0.00000000          1/1

Wave functions: Uniform real-space grid
  Kinetic energy operator: 6*3+1=19 point O(h^6) finite-difference Laplacian
  ScaLapack parameters: grid=1x1, blocksize=None 

Eigensolver
   Davidson(niter=1, smin=None, normalize=True) 

Densities:
  Coarse grid: 40*40*40 grid
  Fine grid: 80*80*80 grid
  Total Charge: 0.000000 

Density mixing:
  Method: separate
  Backend: pulay
  Linear mixing parameter: 0.25
  Mixing with 3 old densities
  No damping of long wave oscillations 

Hamiltonian:
  XC and Coulomb potentials evaluated on a 80*80*80 grid
  Using the AM05 Exchange-Correlation functional
  Interpolation: tri-quintic (5. degree polynomial)
  Poisson solver: Jacobi solver with 5 multi-grid levels
    Coarsest grid: 5 x 5 x 5 points
    Stencil: 6*3+1=19 point O(h^6) finite-difference Laplacian
    Max iterations: 1000
    Tolerance: 2.000000e-10 

Memory estimate:
  Process memory now: 38.95 MiB
  Calculator: 43.14 MiB
    Density: 17.87 MiB
      Arrays: 12.19 MiB
      Localized functions: 2.96 MiB
      Mixer: 2.72 MiB
    Hamiltonian: 17.32 MiB
      Arrays: 7.98 MiB
      XC: 0.00 MiB
      Poisson: 9.13 MiB
      vbar: 0.21 MiB
    Wavefunctions: 7.95 MiB
      Arrays psit_nG: 2.72 MiB
      Eigensolver: 4.98 MiB
      Projections: 0.00 MiB
      Projectors: 0.25 MiB

Total number of cores used: 1

Number of atoms: 3
Number of atomic orbitals: 6
Number of bands in calculation: 6
Bands to converge: occupied states only
Number of valence electrons: 8

... initialized

Initializing position-dependent things.

Density initialized from atomic densities
Creating initial wave functions:
  6 bands from LCAO basis set

     .--------------.  
    /|              |  
   / |              |  
  /  |              |  
 *   |              |  
 |   |   H  H       |  
 |   |    O         |  
 |   .--------------.  
 |  /              /   
 | /              /    
 |/              /     
 *--------------*      

Positions:
   0 H      3.749300    3.000000    3.303850    ( 0.0000,  0.0000,  0.0000)
   1 O      3.000000    3.000000    2.696150    ( 0.0000,  0.0000,  0.0000)
   2 H      2.250700    3.000000    3.303850    ( 0.0000,  0.0000,  0.0000)

Unit cell:
           periodic     x           y           z      points  spacing
  1. axis:    no     6.000000    0.000000    0.000000    40     0.1500
  2. axis:    no     0.000000    6.000000    0.000000    40     0.1500
  3. axis:    no     0.000000    0.000000    6.000000    40     0.1500

  Lengths:   6.000000   6.000000   6.000000
  Angles:   90.000000  90.000000  90.000000

Effective grid spacing dv^(1/3) = 0.1500

                     log10-error:    total        iterations:
           time      wfs    density  energy       fermi  poisson
iter:   1  15:53:07  +2.10   +inf   -16.201167    0      14     
iter:   2  15:53:07  +1.35   +inf   -16.504472    0             
iter:   3  15:53:07  +0.39   +inf   -16.554166    0             
iter:   4  15:53:08  +0.53  -0.70   -14.841696    0      8      
iter:   5  15:53:10  +0.87  -0.95   -14.577752    0      8      
iter:   6  15:53:11  +0.85  -1.17   -14.589939    0      8      
iter:   7  15:53:12  +0.80  -1.78   -14.606308    0      6      
iter:   8  15:53:13  -0.11  -2.05   -14.613534    0      5      
iter:   9  15:53:14  -0.09  -2.11   -14.617026    0      6      
iter:  10  15:53:16  -0.92  -2.28   -14.619000    0      5      
iter:  11  15:53:17  -0.71  -2.51   -14.620019    0      5      
iter:  12  15:53:18  -1.62  -2.89   -14.620436    0      4      
iter:  13  15:53:19  -1.25  -2.85   -14.620715    0      4      
iter:  14  15:53:20  -2.38  -3.04   -14.620804    0      4      
iter:  15  15:53:21  -2.04  -3.37   -14.620849    0      4      
iter:  16  15:53:22  -3.02  -3.58   -14.620838    0      2      
iter:  17  15:53:23  -2.70  -3.61   -14.620876    0      3      
iter:  18  15:53:23  -3.73  -3.72   -14.620881    0      3      
iter:  19  15:53:24  -3.47  -3.90   -14.620889    0      2      
iter:  20  15:53:25  -4.42  -4.11   -14.620889    0      2      
iter:  21  15:53:26  -4.09  -4.70   -14.620890    0      1      
iter:  22  15:53:27  -5.03  -4.90   -14.620911    0      1      
iter:  23  15:53:28  -4.69  -4.75   -14.620902    0      1      
iter:  24  15:53:28  -5.60  -4.75   -14.620858    0      1      
iter:  25  15:53:29  -5.24  -4.55   -14.620936    0      1      
iter:  26  15:53:30  -6.19  -4.66   -14.620953    0      1      
iter:  27  15:53:31  -6.02  -4.78   -14.620914    0      2      
iter:  28  15:53:32  -5.95  -4.86   -14.620825    0      1      
iter:  29  15:53:32  -7.30  -5.16   -14.620866    0      1      
iter:  30  15:53:33  -7.51  -5.33   -14.620889    0      1      

Converged after 30 iterations.

Dipole moment: (-0.000000, 0.000000, 0.399576) |e|*Ang

Energy contributions relative to reference atoms: (reference = -2054.630527)

Kinetic:        +17.419775
Potential:      -19.217439
External:        +0.000000
XC:             -13.175679
Entropy (-ST):   +0.000000
Local:           +0.352454
--------------------------
Free energy:    -14.620889
Extrapolated:   -14.620889

Fermi level: -3.23201

 Band  Eigenvalues  Occupancy
    0    -25.04599    2.00000
    1    -12.81603    2.00000
    2     -9.27973    2.00000
    3     -7.09453    2.00000
    4      0.63051    0.00000
    5      2.99076    0.00000

Writing to 3_21600_Pmm2_AM05_1536162784.gpw (mode='all')

Timing:                              incl.     excl.
-----------------------------------------------------------
Hamiltonian:                         1.719     0.000   0.0% |
 Atomic:                             0.101     0.001   0.0% |
  XC Correction:                     0.101     0.101   0.3% |
 Calculate atomic Hamiltonians:      0.001     0.001   0.0% |
 Communicate:                        0.000     0.000   0.0% |
 Hartree integrate/restrict:         0.006     0.006   0.0% |
 Initialize Hamiltonian:             0.000     0.000   0.0% |
 Poisson:                            1.085     1.085   3.8% |-|
 XC 3D grid:                         0.523     0.523   1.8% ||
 vbar:                               0.002     0.002   0.0% |
LCAO initialization:                 0.074     0.061   0.2% |
 LCAO eigensolver:                   0.005     0.000   0.0% |
  Calculate projections:             0.000     0.000   0.0% |
  DenseAtomicCorrection:             0.000     0.000   0.0% |
  Distribute overlap matrix:         0.000     0.000   0.0% |
  Orbital Layouts:                   0.000     0.000   0.0% |
  Potential matrix:                  0.004     0.004   0.0% |
 LCAO to grid:                       0.005     0.005   0.0% |
 Set positions (LCAO WFS):           0.003     0.000   0.0% |
  Basic WFS set positions:           0.000     0.000   0.0% |
  Basis functions set positions:     0.000     0.000   0.0% |
  TCI: Calculate S, T, P:            0.003     0.003   0.0% |
SCF-cycle:                          26.315     0.011   0.0% |
 Davidson:                           1.839     0.568   2.0% ||
  Apply hamiltonian:                 0.253     0.253   0.9% |
  Subspace diag:                     0.436     0.003   0.0% |
   calc_h_matrix:                    0.315     0.058   0.2% |
    Apply hamiltonian:               0.257     0.257   0.9% |
   diagonalize:                      0.004     0.004   0.0% |
   rotate_psi:                       0.114     0.114   0.4% |
  calc. matrices:                    0.470     0.218   0.8% |
   Apply hamiltonian:                0.252     0.252   0.9% |
  diagonalize:                       0.005     0.005   0.0% |
  rotate_psi:                        0.108     0.108   0.4% |
 Density:                            0.316     0.000   0.0% |
  Atomic density matrices:           0.015     0.015   0.1% |
  Mix:                               0.260     0.260   0.9% |
  Multipole moments:                 0.004     0.004   0.0% |
  Pseudo density:                    0.035     0.035   0.1% |
   Symmetrize density:               0.000     0.000   0.0% |
 Hamiltonian:                       24.144     0.003   0.0% |
  Atomic:                            2.756     0.020   0.1% |
   XC Correction:                    2.736     2.736   9.5% |---|
  Calculate atomic Hamiltonians:     0.036     0.036   0.1% |
  Communicate:                       0.000     0.000   0.0% |
  Hartree integrate/restrict:        0.164     0.164   0.6% |
  Poisson:                           7.009     7.009  24.2% |---------|
  XC 3D grid:                       14.146    14.146  48.9% |-------------------|
  vbar:                              0.030     0.030   0.1% |
 Orthonormalize:                     0.004     0.000   0.0% |
  calc_s_matrix:                     0.001     0.001   0.0% |
  inverse-cholesky:                  0.000     0.000   0.0% |
  projections:                       0.001     0.001   0.0% |
  rotate_psi_s:                      0.002     0.002   0.0% |
Set symmetry:                        0.001     0.001   0.0% |
Other:                               0.808     0.808   2.8% ||
-----------------------------------------------------------
Total:                                        28.917 100.0%

Memory usage: 119.01 MiB
Date: Wed Sep  5 15:53:33 2018
