
  ___ ___ ___ _ _ _  
 |   |   |_  | | | | 
 | | | | | . | | | | 
 |__ |  _|___|_____|  1.4.0
 |___|_|             

User:   ???@96e355854a63
Date:   Wed Sep  5 15:55:44 2018
Arch:   x86_64
Pid:    28
Python: 3.7.0
gpaw:   /app/gpaw/software/venv/lib/python3.7/site-packages/gpaw
_gpaw:  /app/gpaw/software/venv/lib/python3.7/site-packages/
        _gpaw.cpython-37m-x86_64-linux-gnu.so
ase:    /app/gpaw/software/venv/lib/python3.7/site-packages/ase (version 3.16.2)
numpy:  /app/gpaw/software/venv/lib/python3.7/site-packages/numpy (version 1.15.1)
scipy:  /app/gpaw/software/venv/lib/python3.7/site-packages/scipy (version 1.1.0)
units:  Angstrom and eV
cores:  1

Input parameters:
  gpts: [40 40 40]
  maxiter: 150
  mixer: {backend: pulay,
          beta: None,
          method: separate,
          nmaxold: None,
          weight: None}
  xc: PBE

System changes: positions, numbers, cell, pbc, initial_charges, initial_magmoms 

Initialize ...

H-setup:
  name: Hydrogen
  id: 9950909d0a1a9a5c1c7deff279a151da
  Z: 1
  valence: 1
  core: 0
  charge: 0.0
  file: /app/gpaw/datasets/H.PBE
  cutoffs: 0.48(comp), 0.85(filt), 0.53(core), lmax=2
  valence states:
                energy  radius
    1s(1.00)    -6.494   0.476
    *s          20.717   0.476
    *p           0.000   0.476

  Using partial waves for H as LCAO basis

O-setup:
  name: Oxygen
  id: 33e95694c7807aa788cbe85ff86c4300
  Z: 8
  valence: 6
  core: 2
  charge: 0.0
  file: /app/gpaw/datasets/O.PBE
  cutoffs: 0.67(comp), 1.17(filt), 0.83(core), lmax=2
  valence states:
                energy  radius
    2s(2.00)   -23.961   0.688
    2p(4.00)    -9.029   0.598
    *s           3.251   0.688
    *p          18.182   0.598
    *d           0.000   0.619

  Using partial waves for O as LCAO basis

Reference energy: -2065.832616

Spin-paired calculation

Occupation numbers:
  Fermi-Dirac: width=0.0000 eV

Convergence criteria:
  Maximum total energy change: 0.0005 eV / electron
  Maximum integral of absolute density change: 0.0001 electrons
  Maximum integral of absolute eigenstate change: 4e-08 eV^2
  Maximum number of iterations: 150

Symmetries present (total): 1

  ( 1  0  0)
  ( 0  1  0)
  ( 0  0  1)

1 k-point (Gamma)
1 k-point in the irreducible part of the Brillouin zone
       k-points in crystal coordinates                weights
   0:     0.00000000    0.00000000    0.00000000          1/1

Wave functions: Uniform real-space grid
  Kinetic energy operator: 6*3+1=19 point O(h^6) finite-difference Laplacian
  ScaLapack parameters: grid=1x1, blocksize=None 

Eigensolver
   Davidson(niter=1, smin=None, normalize=True) 

Densities:
  Coarse grid: 40*40*40 grid
  Fine grid: 80*80*80 grid
  Total Charge: 0.000000 

Density mixing:
  Method: separate
  Backend: pulay
  Linear mixing parameter: 0.25
  Mixing with 3 old densities
  No damping of long wave oscillations 

Hamiltonian:
  XC and Coulomb potentials evaluated on a 80*80*80 grid
  Using the PBE Exchange-Correlation functional
  Interpolation: tri-quintic (5. degree polynomial)
  Poisson solver: Jacobi solver with 5 multi-grid levels
    Coarsest grid: 5 x 5 x 5 points
    Stencil: 6*3+1=19 point O(h^6) finite-difference Laplacian
    Max iterations: 1000
    Tolerance: 2.000000e-10 

Memory estimate:
  Process memory now: 38.97 MiB
  Calculator: 43.14 MiB
    Density: 17.87 MiB
      Arrays: 12.19 MiB
      Localized functions: 2.96 MiB
      Mixer: 2.72 MiB
    Hamiltonian: 17.32 MiB
      Arrays: 7.98 MiB
      XC: 0.00 MiB
      Poisson: 9.13 MiB
      vbar: 0.21 MiB
    Wavefunctions: 7.95 MiB
      Arrays psit_nG: 2.72 MiB
      Eigensolver: 4.98 MiB
      Projections: 0.00 MiB
      Projectors: 0.25 MiB

Total number of cores used: 1

Number of atoms: 3
Number of atomic orbitals: 6
Number of bands in calculation: 6
Bands to converge: occupied states only
Number of valence electrons: 8

... initialized

Initializing position-dependent things.

Density initialized from atomic densities
Creating initial wave functions:
  6 bands from LCAO basis set

     .--------------.  
    /|              |  
   / |              |  
  /  |              |  
 *   |              |  
 |   |   H  H       |  
 |   |    O         |  
 |   .--------------.  
 |  /              /   
 | /              /    
 |/              /     
 *--------------*      

Positions:
   0 H      3.749300    3.000000    3.303850    ( 0.0000,  0.0000,  0.0000)
   1 O      3.000000    3.000000    2.696150    ( 0.0000,  0.0000,  0.0000)
   2 H      2.250700    3.000000    3.303850    ( 0.0000,  0.0000,  0.0000)

Unit cell:
           periodic     x           y           z      points  spacing
  1. axis:    no     6.000000    0.000000    0.000000    40     0.1500
  2. axis:    no     0.000000    6.000000    0.000000    40     0.1500
  3. axis:    no     0.000000    0.000000    6.000000    40     0.1500

  Lengths:   6.000000   6.000000   6.000000
  Angles:   90.000000  90.000000  90.000000

Effective grid spacing dv^(1/3) = 0.1500

                     log10-error:    total        iterations:
           time      wfs    density  energy       fermi  poisson
iter:   1  15:55:47  +2.10   +inf   -16.037473    0      14     
iter:   2  15:55:47  +1.34   +inf   -16.338582    0             
iter:   3  15:55:47  +0.38   +inf   -16.387662    0             
iter:   4  15:55:48  +0.53  -0.71   -14.695864    0      8      
iter:   5  15:55:49  +0.86  -0.95   -14.443920    0      8      
iter:   6  15:55:50  +0.85  -1.17   -14.460223    0      8      
iter:   7  15:55:52  +0.81  -1.78   -14.474606    0      6      
iter:   8  15:55:53  -0.14  -2.05   -14.481515    0      5      
iter:   9  15:55:54  -0.09  -2.11   -14.484794    0      6      
iter:  10  15:55:55  -0.95  -2.28   -14.486565    0      5      
iter:  11  15:55:56  -0.73  -2.56   -14.487465    0      5      
iter:  12  15:55:56  -1.65  -2.97   -14.487858    0      4      
iter:  13  15:55:57  -1.28  -2.90   -14.488109    0      4      
iter:  14  15:55:58  -2.38  -3.03   -14.488186    0      4      
iter:  15  15:55:59  -2.05  -3.26   -14.488235    0      4      
iter:  16  15:56:00  -2.98  -3.45   -14.488168    0      2      
iter:  17  15:56:01  -2.79  -3.59   -14.488239    0      3      
iter:  18  15:56:02  -3.83  -3.73   -14.488232    0      3      
iter:  19  15:56:02  -3.41  -4.31   -14.488310    0      2      
iter:  20  15:56:03  -4.66  -4.36   -14.488333    0      1      
iter:  21  15:56:04  -4.25  -4.32   -14.488282    0      1      
iter:  22  15:56:04  -5.39  -4.30   -14.488270    0      1      
iter:  23  15:56:05  -4.99  -4.20   -14.488264    0      2      
iter:  24  15:56:06  -6.11  -4.36   -14.488266    0      1      
iter:  25  15:56:06  -5.86  -4.34   -14.488304    0      1      
iter:  26  15:56:07  -6.77  -4.36   -14.488291    0      2      
iter:  27  15:56:08  -6.41  -4.27   -14.488278    0      2      
iter:  28  15:56:09  -5.79  -4.58   -14.488279    0      2      
iter:  29  15:56:09  -5.97  -4.74   -14.488355    0      1      
iter:  30  15:56:10  -6.05  -5.05   -14.488228    0      1      
iter:  31  15:56:11  -6.81  -5.16   -14.488139    0      1      
iter:  32  15:56:11  -7.46  -5.42   -14.488250    0      1      

Converged after 32 iterations.

Dipole moment: (-0.000000, 0.000000, 0.393385) |e|*Ang

Energy contributions relative to reference atoms: (reference = -2065.832616)

Kinetic:        +16.702363
Potential:      -18.670474
External:        +0.000000
XC:             -12.869787
Entropy (-ST):   +0.000000
Local:           +0.349649
--------------------------
Free energy:    -14.488250
Extrapolated:   -14.488250

Fermi level: -3.36776

 Band  Eigenvalues  Occupancy
    0    -25.25584    2.00000
    1    -12.91911    2.00000
    2     -9.38550    2.00000
    3     -7.16806    2.00000
    4      0.43254    0.00000
    5      2.82197    0.00000

Writing to 3_21600_Pmm2_PBE_1536162944.gpw (mode='all')

Timing:                              incl.     excl.
-----------------------------------------------------------
Hamiltonian:                         1.608     0.000   0.0% |
 Atomic:                             0.097     0.001   0.0% |
  XC Correction:                     0.096     0.096   0.4% |
 Calculate atomic Hamiltonians:      0.001     0.001   0.0% |
 Communicate:                        0.000     0.000   0.0% |
 Hartree integrate/restrict:         0.006     0.006   0.0% |
 Initialize Hamiltonian:             0.000     0.000   0.0% |
 Poisson:                            1.086     1.086   4.0% |-|
 XC 3D grid:                         0.414     0.414   1.5% ||
 vbar:                               0.002     0.002   0.0% |
LCAO initialization:                 0.075     0.062   0.2% |
 LCAO eigensolver:                   0.005     0.000   0.0% |
  Calculate projections:             0.000     0.000   0.0% |
  DenseAtomicCorrection:             0.000     0.000   0.0% |
  Distribute overlap matrix:         0.000     0.000   0.0% |
  Orbital Layouts:                   0.000     0.000   0.0% |
  Potential matrix:                  0.004     0.004   0.0% |
 LCAO to grid:                       0.005     0.005   0.0% |
 Set positions (LCAO WFS):           0.003     0.000   0.0% |
  Basic WFS set positions:           0.000     0.000   0.0% |
  Basis functions set positions:     0.000     0.000   0.0% |
  TCI: Calculate S, T, P:            0.003     0.003   0.0% |
SCF-cycle:                          24.653     0.012   0.0% |
 Davidson:                           1.947     0.589   2.2% ||
  Apply hamiltonian:                 0.270     0.270   1.0% |
  Subspace diag:                     0.464     0.003   0.0% |
   calc_h_matrix:                    0.335     0.061   0.2% |
    Apply hamiltonian:               0.274     0.274   1.0% |
   diagonalize:                      0.004     0.004   0.0% |
   rotate_psi:                       0.123     0.123   0.5% |
  calc. matrices:                    0.502     0.233   0.9% |
   Apply hamiltonian:                0.269     0.269   1.0% |
  diagonalize:                       0.006     0.006   0.0% |
  rotate_psi:                        0.115     0.115   0.4% |
 Density:                            0.340     0.000   0.0% |
  Atomic density matrices:           0.017     0.017   0.1% |
  Mix:                               0.280     0.280   1.0% |
  Multipole moments:                 0.005     0.005   0.0% |
  Pseudo density:                    0.038     0.038   0.1% |
   Symmetrize density:               0.000     0.000   0.0% |
 Hamiltonian:                       22.350     0.003   0.0% |
  Atomic:                            2.815     0.022   0.1% |
   XC Correction:                    2.793     2.793  10.3% |---|
  Calculate atomic Hamiltonians:     0.038     0.038   0.1% |
  Communicate:                       0.000     0.000   0.0% |
  Hartree integrate/restrict:        0.177     0.177   0.7% |
  Poisson:                           7.312     7.312  26.9% |----------|
  XC 3D grid:                       11.973    11.973  44.1% |-----------------|
  vbar:                              0.032     0.032   0.1% |
 Orthonormalize:                     0.004     0.000   0.0% |
  calc_s_matrix:                     0.001     0.001   0.0% |
  inverse-cholesky:                  0.000     0.000   0.0% |
  projections:                       0.001     0.001   0.0% |
  rotate_psi_s:                      0.002     0.002   0.0% |
Set symmetry:                        0.001     0.001   0.0% |
Other:                               0.807     0.807   3.0% ||
-----------------------------------------------------------
Total:                                        27.143 100.0%

Memory usage: 119.21 MiB
Date: Wed Sep  5 15:56:11 2018
