
  ___ ___ ___ _ _ _  
 |   |   |_  | | | | 
 | | | | | . | | | | 
 |__ |  _|___|_____|  1.4.0
 |___|_|             

User:   ???@96e355854a63
Date:   Thu Sep  6 01:23:53 2018
Arch:   x86_64
Pid:    48
Python: 3.7.0
gpaw:   /app/gpaw/software/venv/lib/python3.7/site-packages/gpaw
_gpaw:  /app/gpaw/software/venv/lib/python3.7/site-packages/
        _gpaw.cpython-37m-x86_64-linux-gnu.so
ase:    /app/gpaw/software/venv/lib/python3.7/site-packages/ase (version 3.16.2)
numpy:  /app/gpaw/software/venv/lib/python3.7/site-packages/numpy (version 1.15.1)
scipy:  /app/gpaw/software/venv/lib/python3.7/site-packages/scipy (version 1.1.0)
units:  Angstrom and eV
cores:  1

Input parameters:
  gpts: [24 24 24]
  maxiter: 150
  mixer: {backend: pulay,
          beta: None,
          method: separate,
          nmaxold: None,
          weight: None}
  xc: PBE

System changes: positions, numbers, cell, pbc, initial_charges, initial_magmoms 

Initialize ...

H-setup:
  name: Hydrogen
  id: 9950909d0a1a9a5c1c7deff279a151da
  Z: 1
  valence: 1
  core: 0
  charge: 0.0
  file: /app/gpaw/datasets/H.PBE
  cutoffs: 0.48(comp), 0.85(filt), 0.53(core), lmax=2
  valence states:
                energy  radius
    1s(1.00)    -6.494   0.476
    *s          20.717   0.476
    *p           0.000   0.476

  Using partial waves for H as LCAO basis

O-setup:
  name: Oxygen
  id: 33e95694c7807aa788cbe85ff86c4300
  Z: 8
  valence: 6
  core: 2
  charge: 0.0
  file: /app/gpaw/datasets/O.PBE
  cutoffs: 0.67(comp), 1.17(filt), 0.83(core), lmax=2
  valence states:
                energy  radius
    2s(2.00)   -23.961   0.688
    2p(4.00)    -9.029   0.598
    *s           3.251   0.688
    *p          18.182   0.598
    *d           0.000   0.619

  Using partial waves for O as LCAO basis

Reference energy: -2065.832616

Spin-paired calculation

Occupation numbers:
  Fermi-Dirac: width=0.0000 eV

Convergence criteria:
  Maximum total energy change: 0.0005 eV / electron
  Maximum integral of absolute density change: 0.0001 electrons
  Maximum integral of absolute eigenstate change: 4e-08 eV^2
  Maximum number of iterations: 150

Symmetries present (total): 1

  ( 1  0  0)
  ( 0  1  0)
  ( 0  0  1)

1 k-point (Gamma)
1 k-point in the irreducible part of the Brillouin zone
       k-points in crystal coordinates                weights
   0:     0.00000000    0.00000000    0.00000000          1/1

Wave functions: Uniform real-space grid
  Kinetic energy operator: 6*3+1=19 point O(h^6) finite-difference Laplacian
  ScaLapack parameters: grid=1x1, blocksize=None 

Eigensolver
   Davidson(niter=1, smin=None, normalize=True) 

Densities:
  Coarse grid: 24*24*24 grid
  Fine grid: 48*48*48 grid
  Total Charge: 0.000000 

Density mixing:
  Method: separate
  Backend: pulay
  Linear mixing parameter: 0.25
  Mixing with 3 old densities
  No damping of long wave oscillations 

Hamiltonian:
  XC and Coulomb potentials evaluated on a 48*48*48 grid
  Using the PBE Exchange-Correlation functional
  Interpolation: tri-quintic (5. degree polynomial)
  Poisson solver: Jacobi solver with 5 multi-grid levels
    Coarsest grid: 3 x 3 x 3 points
    Stencil: 6*3+1=19 point O(h^6) finite-difference Laplacian
    Max iterations: 1000
    Tolerance: 2.000000e-10 

Memory estimate:
  Process memory now: 38.95 MiB
  Calculator: 10.80 MiB
    Density: 5.28 MiB
      Arrays: 2.56 MiB
      Localized functions: 2.16 MiB
      Mixer: 0.56 MiB
    Hamiltonian: 3.76 MiB
      Arrays: 1.68 MiB
      XC: 0.00 MiB
      Poisson: 1.92 MiB
      vbar: 0.16 MiB
    Wavefunctions: 1.77 MiB
      Arrays psit_nG: 0.56 MiB
      Eigensolver: 1.02 MiB
      Projections: 0.00 MiB
      Projectors: 0.19 MiB

Total number of cores used: 1

Number of atoms: 3
Number of atomic orbitals: 6
Number of bands in calculation: 6
Bands to converge: occupied states only
Number of valence electrons: 8

... initialized

Initializing position-dependent things.

Density initialized from atomic densities
Creating initial wave functions:
  6 bands from LCAO basis set

   .---------.  
  /|         |  
 * |         |  
 | | H   H   |  
 | |   O     |  
 | .---------.  
 |/         /   
 *---------*    

Positions:
   0 H      2.749300    2.000000    2.303850    ( 0.0000,  0.0000,  0.0000)
   1 O      2.000000    2.000000    1.696150    ( 0.0000,  0.0000,  0.0000)
   2 H      1.250700    2.000000    2.303850    ( 0.0000,  0.0000,  0.0000)

Unit cell:
           periodic     x           y           z      points  spacing
  1. axis:    no     4.000000    0.000000    0.000000    24     0.1667
  2. axis:    no     0.000000    4.000000    0.000000    24     0.1667
  3. axis:    no     0.000000    0.000000    4.000000    24     0.1667

  Lengths:   4.000000   4.000000   4.000000
  Angles:   90.000000  90.000000  90.000000

Effective grid spacing dv^(1/3) = 0.1667

                     log10-error:    total        iterations:
           time      wfs    density  energy       fermi  poisson
iter:   1  01:23:54  +2.73   +inf   -14.192093    0      15     
iter:   2  01:23:54  +1.44   +inf   -14.663138    0             
iter:   3  01:23:54  +0.69   +inf   -14.744693    0             
iter:   4  01:23:55  +0.58  -0.72   -13.307382    0      8      
iter:   5  01:23:55  +0.72  -0.94   -13.059273    0      8      
iter:   6  01:23:55  +0.63  -1.15   -13.072179    0      9      
iter:   7  01:23:56  +0.39  -1.88   -13.090907    0      6      
iter:   8  01:23:56  -0.28  -2.15   -13.094790    0      5      
iter:   9  01:23:56  -0.57  -2.20   -13.096400    0      6      
iter:  10  01:23:57  -1.15  -2.38   -13.097720    0      5      
iter:  11  01:23:57  -1.15  -2.53   -13.098630    0      5      
iter:  12  01:23:57  -1.88  -2.84   -13.098906    0      4      
iter:  13  01:23:57  -1.80  -2.91   -13.099445    0      4      
iter:  14  01:23:58  -2.56  -3.20   -13.099723    0      4      
iter:  15  01:23:58  -2.58  -3.48   -13.099724    0      3      
iter:  16  01:23:58  -3.19  -3.79   -13.099730    0      3      
iter:  17  01:23:58  -3.26  -4.00   -13.099808    0      2      
iter:  18  01:23:59  -3.78  -4.05   -13.099832    0      2      
iter:  19  01:23:59  -3.93  -4.22   -13.099813    0      2      
iter:  20  01:23:59  -4.32  -4.48   -13.099662    0      1      
iter:  21  01:23:59  -4.50  -4.52   -13.099721    0      2      
iter:  22  01:24:00  -4.90  -5.15   -13.099764    0      1      
iter:  23  01:24:00  -5.04  -5.27   -13.099767    0      1      
iter:  24  01:24:00  -5.43  -5.34   -13.099760    0      1      
iter:  25  01:24:00  -5.56  -5.38   -13.099760    0      1      
iter:  26  01:24:00  -5.95  -5.40   -13.099755    0      1      
iter:  27  01:24:01  -6.08  -5.40   -13.099747    0      1      
iter:  28  01:24:01  -6.46  -5.30   -13.099766    0      1      
iter:  29  01:24:01  -6.59  -5.58   -13.099765    0      1      
iter:  30  01:24:01  -6.95  -5.88   -13.099762    0      1      
iter:  31  01:24:02  -7.09  -5.84   -13.099743    0      1      
iter:  32  01:24:02  -7.48  -6.13   -13.099743    0      1      

Converged after 32 iterations.

Dipole moment: (0.000000, 0.000000, 0.387363) |e|*Ang

Energy contributions relative to reference atoms: (reference = -2065.832616)

Kinetic:        +23.777423
Potential:      -22.525849
External:        +0.000000
XC:             -14.773994
Entropy (-ST):   +0.000000
Local:           +0.422677
--------------------------
Free energy:    -13.099743
Extrapolated:   -13.099743

Fermi level: 0.04639

 Band  Eigenvalues  Occupancy
    0    -23.89507    2.00000
    1    -11.50745    2.00000
    2     -7.95371    2.00000
    3     -5.72322    2.00000
    4      5.81601    0.00000
    5      7.40423    0.00000

Writing to 3_6399_Pmm2_PBE_1536197033.gpw (mode='all')

Timing:                              incl.     excl.
-----------------------------------------------------------
Hamiltonian:                         0.431     0.000   0.0% |
 Atomic:                             0.098     0.001   0.0% |
  XC Correction:                     0.097     0.097   1.1% |
 Calculate atomic Hamiltonians:      0.001     0.001   0.0% |
 Communicate:                        0.000     0.000   0.0% |
 Hartree integrate/restrict:         0.001     0.001   0.0% |
 Initialize Hamiltonian:             0.000     0.000   0.0% |
 Poisson:                            0.243     0.243   2.8% ||
 XC 3D grid:                         0.087     0.087   1.0% |
 vbar:                               0.000     0.000   0.0% |
LCAO initialization:                 0.067     0.062   0.7% |
 LCAO eigensolver:                   0.001     0.000   0.0% |
  Calculate projections:             0.000     0.000   0.0% |
  DenseAtomicCorrection:             0.000     0.000   0.0% |
  Distribute overlap matrix:         0.000     0.000   0.0% |
  Orbital Layouts:                   0.000     0.000   0.0% |
  Potential matrix:                  0.001     0.001   0.0% |
 LCAO to grid:                       0.001     0.001   0.0% |
 Set positions (LCAO WFS):           0.003     0.000   0.0% |
  Basic WFS set positions:           0.000     0.000   0.0% |
  Basis functions set positions:     0.000     0.000   0.0% |
  TCI: Calculate S, T, P:            0.003     0.003   0.0% |
SCF-cycle:                           7.497     0.011   0.1% |
 Davidson:                           0.472     0.161   1.8% ||
  Apply hamiltonian:                 0.056     0.056   0.6% |
  Subspace diag:                     0.106     0.003   0.0% |
   calc_h_matrix:                    0.076     0.020   0.2% |
    Apply hamiltonian:               0.057     0.057   0.6% |
   diagonalize:                      0.004     0.004   0.0% |
   rotate_psi:                       0.024     0.024   0.3% |
  calc. matrices:                    0.123     0.067   0.8% |
   Apply hamiltonian:                0.056     0.056   0.6% |
  diagonalize:                       0.005     0.005   0.1% |
  rotate_psi:                        0.021     0.021   0.2% |
 Density:                            0.115     0.000   0.0% |
  Atomic density matrices:           0.016     0.016   0.2% |
  Mix:                               0.086     0.086   1.0% |
  Multipole moments:                 0.005     0.005   0.1% |
  Pseudo density:                    0.008     0.008   0.1% |
   Symmetrize density:               0.000     0.000   0.0% |
 Hamiltonian:                        6.899     0.002   0.0% |
  Atomic:                            2.834     0.021   0.2% |
   XC Correction:                    2.813     2.813  32.0% |------------|
  Calculate atomic Hamiltonians:     0.030     0.030   0.3% |
  Communicate:                       0.000     0.000   0.0% |
  Hartree integrate/restrict:        0.037     0.037   0.4% |
  Poisson:                           1.456     1.456  16.6% |------|
  XC 3D grid:                        2.533     2.533  28.8% |-----------|
  vbar:                              0.006     0.006   0.1% |
 Orthonormalize:                     0.002     0.000   0.0% |
  calc_s_matrix:                     0.000     0.000   0.0% |
  inverse-cholesky:                  0.000     0.000   0.0% |
  projections:                       0.001     0.001   0.0% |
  rotate_psi_s:                      0.000     0.000   0.0% |
Set symmetry:                        0.001     0.001   0.0% |
Other:                               0.786     0.786   8.9% |---|
-----------------------------------------------------------
Total:                                         8.782 100.0%

Memory usage: 58.95 MiB
Date: Thu Sep  6 01:24:02 2018
